<?xml version="1.0"?>
<VTKFile type="PolyData" version="0.1" byte_order="LittleEndian" compressor="vtkZLibDataCompressor">
  <PolyData>
    <Piece NumberOfPoints="97" NumberOfVerts="0" NumberOfLines="0" NumberOfStrips="0" NumberOfPolys="98">
      <PointData>
      </PointData>
      <CellData Scalars="_DefaultCellThematicColorScalar">
        <DataArray type="Int32" Name="cell_texture_mapping" format="ascii" RangeMin="-1" RangeMax="-1">
          -1 -1 -1 -1 -1 -1
          -1 -1 -1 -1 -1 -1
          -1 -1 -1 -1 -1 -1
          -1 -1 -1 -1 -1 -1
          -1 -1 -1 -1 -1 -1
          -1 -1 -1 -1 -1 -1
          -1 -1 -1 -1 -1 -1
          -1 -1 -1 -1 -1 -1
          -1 -1 -1 -1 -1 -1
          -1 -1 -1 -1 -1 -1
          -1 -1 -1 -1 -1 -1
          -1 -1 -1 -1 -1 -1
          -1 -1 -1 -1 -1 -1
          -1 -1 -1 -1 -1 -1
          -1 -1 -1 -1 -1 -1
          -1 -1 -1 -1 -1 -1
          -1 -1
        </DataArray>
        <DataArray type="Int32" Name="_DefaultCellColorScalar" format="ascii" RangeMin="0" RangeMax="0">
          0 0 0 0 0 0
          0 0 0 0 0 0
          0 0 0 0 0 0
          0 0 0 0 0 0
          0 0 0 0 0 0
          0 0 0 0 0 0
          0 0 0 0 0 0
          0 0 0 0 0 0
          0 0 0 0 0 0
          0 0 0 0 0 0
          0 0 0 0 0 0
          0 0 0 0 0 0
          0 0 0 0 0 0
          0 0 0 0 0 0
          0 0 0 0 0 0
          0 0 0 0 0 0
          0 0
        </DataArray>
        <DataArray type="Float64" Name="_DefaultCellValueScalar" format="ascii" RangeMin="0" RangeMax="29">
          0 0 0 0 0 1
          1 1 1 2 2 2
          2 3 3 3 4 4
          4 4 5 5 5 6
          6 6 6 7 7 7
          7 8 8 8 8 9
          9 10 10 11 11 12
          12 12 13 13 13 14
          14 14 15 15 16 16
          16 17 17 17 17 18
          19 20 20 20 20 21
          21 21 22 22 22 23
          23 23 23 24 25 25
          25 25 26 26 26 26
          27 27 27 27 27 28
          28 28 29 29 29 29
          29 29
        </DataArray>
        <DataArray type="Float64" Name="_DefaultCellIdScalar" format="ascii" RangeMin="1" RangeMax="30">
          1 1 1 1 1 2
          2 2 2 3 3 3
          3 4 4 4 5 5
          5 5 6 6 6 7
          7 7 7 8 8 8
          8 9 9 9 9 10
          10 11 11 12 12 13
          13 13 14 14 14 15
          15 15 16 16 17 17
          17 18 18 18 18 19
          20 21 21 21 21 22
          22 22 23 23 23 24
          24 24 24 25 26 26
          26 26 27 27 27 27
          28 28 28 28 28 29
          29 29 30 30 30 30
          30 30
        </DataArray>
        <DataArray type="Int32" Name="_DefaultCellThematicColorScalar" format="ascii" RangeMin="1" RangeMax="1">
          1 1 1 1 1 1
          1 1 1 1 1 1
          1 1 1 1 1 1
          1 1 1 1 1 1
          1 1 1 1 1 1
          1 1 1 1 1 1
          1 1 1 1 1 1
          1 1 1 1 1 1
          1 1 1 1 1 1
          1 1 1 1 1 1
          1 1 1 1 1 1
          1 1 1 1 1 1
          1 1 1 1 1 1
          1 1 1 1 1 1
          1 1 1 1 1 1
          1 1 1 1 1 1
          1 1
        </DataArray>
        <DataArray type="Int32" Name="_DefaultCellThematicSlotIndex" format="ascii" RangeMin="0" RangeMax="0">
          0 0 0 0 0 0
          0 0 0 0 0 0
          0 0 0 0 0 0
          0 0 0 0 0 0
          0 0 0 0 0 0
          0 0 0 0 0 0
          0 0 0 0 0 0
          0 0 0 0 0 0
          0 0 0 0 0 0
          0 0 0 0 0 0
          0 0 0 0 0 0
          0 0 0 0 0 0
          0 0 0 0 0 0
          0 0 0 0 0 0
          0 0 0 0 0 0
          0 0 0 0 0 0
          0 0
        </DataArray>
      </CellData>
      <Points>
        <DataArray type="Float64" Name="Points" NumberOfComponents="3" format="ascii" RangeMin="4410666.4761" RangeMax="4410703.4121">
          250783.617 4403530.984 1101.64 250788.617 4403530.984 1101.64
          250783.617 4403535.984 1101.64 250788.617 4403535.984 1101.64
          250783.617 4403530.984 1106.64 250788.617 4403530.984 1106.64
          250783.617 4403535.984 1106.64 250788.617 4403535.984 1106.64
          250783.617 4403530.984 1111.64 250788.617 4403530.984 1111.64
          250783.617 4403535.984 1111.64 250788.617 4403535.984 1111.64
          250793.617 4403530.984 1106.64 250793.617 4403535.984 1106.64
          250793.617 4403530.984 1111.64 250793.617 4403535.984 1111.64
          250788.617 4403535.984 1096.64 250793.617 4403535.984 1096.64
          250788.617 4403540.984 1096.64 250793.617 4403540.984 1096.64
          250793.617 4403535.984 1101.64 250788.617 4403540.984 1101.64
          250793.617 4403540.984 1101.64 250788.617 4403540.984 1106.64
          250793.617 4403540.984 1106.64 250788.617 4403540.984 1111.64
          250793.617 4403540.984 1111.64 250788.617 4403545.984 1096.64
          250793.617 4403545.984 1096.64 250788.617 4403545.984 1101.64
          250793.617 4403545.984 1101.64 250798.617 4403535.984 1096.64
          250798.617 4403540.984 1096.64 250798.617 4403535.984 1101.64
          250798.617 4403540.984 1101.64 250798.617 4403535.984 1106.64
          250798.617 4403540.984 1106.64 250798.617 4403535.984 1111.64
          250798.617 4403540.984 1111.64 250798.617 4403545.984 1096.64
          250798.617 4403545.984 1101.64 250793.617 4403545.984 1106.64
          250798.617 4403545.984 1106.64 250793.617 4403545.984 1111.64
          250798.617 4403545.984 1111.64 250793.617 4403550.984 1101.64
          250798.617 4403550.984 1101.64 250793.617 4403550.984 1106.64
          250798.617 4403550.984 1106.64 250793.617 4403550.984 1111.64
          250798.617 4403550.984 1111.64 250803.617 4403540.984 1096.64
          250803.617 4403545.984 1096.64 250803.617 4403540.984 1101.64
          250803.617 4403545.984 1101.64 250803.617 4403540.984 1106.64
          250803.617 4403545.984 1106.64 250803.617 4403540.984 1111.64
          250803.617 4403545.984 1111.64 250798.617 4403550.984 1096.64
          250803.617 4403550.984 1096.64 250803.617 4403550.984 1101.64
          250803.617 4403550.984 1106.64 250803.617 4403550.984 1111.64
          250798.617 4403555.984 1106.64 250803.617 4403555.984 1106.64
          250798.617 4403555.984 1111.64 250803.617 4403555.984 1111.64
          250808.617 4403545.984 1101.64 250808.617 4403550.984 1101.64
          250808.617 4403545.984 1106.64 250808.617 4403550.984 1106.64
          250808.617 4403545.984 1111.64 250808.617 4403550.984 1111.64
          250803.617 4403555.984 1101.64 250808.617 4403555.984 1101.64
          250808.617 4403555.984 1106.64 250808.617 4403555.984 1111.64
          250803.617 4403560.984 1106.64 250808.617 4403560.984 1106.64
          250803.617 4403560.984 1111.64 250808.617 4403560.984 1111.64
          250813.617 4403550.984 1106.64 250813.617 4403555.984 1106.64
          250813.617 4403550.984 1111.64 250813.617 4403555.984 1111.64
          250813.617 4403555.984 1101.64 250808.617 4403560.984 1101.64
          250813.617 4403560.984 1101.64 250813.617 4403560.984 1106.64
          250813.617 4403560.984 1111.64 250818.617 4403560.984 1106.64
          250813.617 4403565.984 1106.64 250818.617 4403565.984 1106.64
          250818.617 4403560.984 1111.64 250813.617 4403565.984 1111.64
          250818.617 4403565.984 1111.64
        </DataArray>
      </Points>
      <Verts>
        <DataArray type="Int32" Name="connectivity" format="ascii" RangeMin="1e+299" RangeMax="-1e+299">
        </DataArray>
        <DataArray type="Int32" Name="offsets" format="ascii" RangeMin="1e+299" RangeMax="-1e+299">
        </DataArray>
      </Verts>
      <Lines>
        <DataArray type="Int32" Name="connectivity" format="ascii" RangeMin="1e+299" RangeMax="-1e+299">
        </DataArray>
        <DataArray type="Int32" Name="offsets" format="ascii" RangeMin="1e+299" RangeMax="-1e+299">
        </DataArray>
      </Lines>
      <Strips>
        <DataArray type="Int32" Name="connectivity" format="ascii" RangeMin="1e+299" RangeMax="-1e+299">
        </DataArray>
        <DataArray type="Int32" Name="offsets" format="ascii" RangeMin="1e+299" RangeMax="-1e+299">
        </DataArray>
      </Strips>
      <Polys>
        <DataArray type="Int32" Name="connectivity" format="ascii" RangeMin="0" RangeMax="96">
          2 0 4 6 1 3
          7 5 0 1 5 4
          3 2 6 7 1 0
          2 3 6 4 8 10
          4 5 9 8 7 6
          10 11 8 9 11 10
          12 13 15 14 5 12
          14 9 12 5 7 13
          9 14 15 11 18 16
          3 21 16 17 20 3
          17 16 18 19 21 3
          7 23 20 22 24 13
          3 20 13 7 22 21
          23 24 23 7 11 25
          24 23 25 26 11 15
          26 25 27 18 21 29
          28 27 29 30 19 18
          27 28 21 22 30 29
          31 32 34 33 17 31
          33 20 31 17 19 32
          20 33 34 22 35 36
          38 37 13 35 37 15
          35 13 24 36 15 37
          38 26 39 28 30 40
          32 19 28 39 30 22
          24 41 22 34 36 24
          41 24 26 43 26 38
          44 43 45 30 41 47
          46 45 47 48 40 30
          45 46 47 41 43 49
          48 47 49 50 43 44
          50 49 51 52 54 53
          32 51 53 34 51 32
          39 52 53 54 56 55
          34 53 55 36 55 56
          58 57 36 55 57 38
          38 57 58 44 59 39
          40 46 52 60 61 54
          60 59 46 61 52 39
          59 60 61 46 48 62
          44 58 63 50 64 48
          50 66 65 64 66 67
          62 48 64 65 50 63
          67 66 68 69 71 70
          54 68 70 56 68 54
          61 69 70 71 73 72
          56 70 72 58 58 72
          73 63 74 61 62 65
          69 75 76 71 75 74
          65 76 69 61 74 75
          63 73 77 67 78 65
          67 80 79 78 80 81
          76 65 78 79 67 77
          81 80 82 83 85 84
          71 82 84 73 82 71
          76 83 73 84 85 77
          87 75 76 79 86 88
          89 83 75 86 83 76
          88 87 79 89 86 75
          87 88 83 89 90 85
          89 79 81 90 77 85
          90 81 92 89 90 95
          91 93 96 94 89 91
          94 90 93 92 95 96
          91 89 92 93 90 94
          96 95
        </DataArray>
        <DataArray type="Int32" Name="offsets" format="ascii" RangeMin="4" RangeMax="392">
          4 8 12 16 20 24
          28 32 36 40 44 48
          52 56 60 64 68 72
          76 80 84 88 92 96
          100 104 108 112 116 120
          124 128 132 136 140 144
          148 152 156 160 164 168
          172 176 180 184 188 192
          196 200 204 208 212 216
          220 224 228 232 236 240
          244 248 252 256 260 264
          268 272 276 280 284 288
          292 296 300 304 308 312
          316 320 324 328 332 336
          340 344 348 352 356 360
          364 368 372 376 380 384
          388 392
        </DataArray>
      </Polys>
    </Piece>
  </PolyData>
</VTKFile>
